V -t * -v 1.0a5 -a 0
A -t * -n 1 -p 0 -o 0x7fffffff -c 30 -a 1
A -t * -h 1 -m 1073741823 -s 0
c -t * -i 1 -n Green
c -t * -i 2 -n Red
n -t * -a 4 -s 4 -S UP -v circle -c black -i black
n -t * -a 0 -s 0 -S UP -v circle -c black -i black
n -t * -a 5 -s 5 -S UP -v circle -c black -i black
n -t * -a 1 -s 1 -S UP -v circle -c black -i black
n -t * -a 2 -s 2 -S UP -v circle -c black -i black
n -t * -a 3 -s 3 -S UP -v circle -c black -i black
l -t * -s 0 -d 1 -S UP -r 10000000 -D 0.01 -c black -o right-down
l -t * -s 1 -d 4 -S UP -r 10000000 -D 0.01 -c black -o left-down
l -t * -s 2 -d 1 -S UP -r 10000000 -D 0.01 -c black -o left
l -t * -s 2 -d 5 -S UP -r 10000000 -D 0.01 -c black -o right-down
l -t * -s 2 -d 3 -S UP -r 10000000 -D 0.01 -c black -o right-up
+ -t 0.1 -s 1 -d 2 -p cbr -e 210 -c 0 -i 0 -a 0 -x {1.0 2.0 0 ------- null}
- -t 0.1 -s 1 -d 2 -p cbr -e 210 -c 0 -i 0 -a 0 -x {1.0 2.0 0 ------- null}
h -t 0.1 -s 1 -d 2 -p cbr -e 210 -c 0 -i 0 -a 0 -x {1.0 2.0 -1 ------- null}
+ -t 0.10375 -s 1 -d 2 -p cbr -e 210 -c 0 -i 1 -a 0 -x {1.0 2.0 1 ------- null}
- -t 0.10375 -s 1 -d 2 -p cbr -e 210 -c 0 -i 1 -a 0 -x {1.0 2.0 1 ------- null}
h -t 0.10375 -s 1 -d 2 -p cbr -e 210 -c 0 -i 1 -a 0 -x {1.0 2.0 -1 ------- null}
+ -t 0.1075 -s 1 -d 2 -p cbr -e 210 -c 0 -i 2 -a 0 -x {1.0 2.0 2 ------- null}
- -t 0.1075 -s 1 -d 2 -p cbr -e 210 -c 0 -i 2 -a 0 -x {1.0 2.0 2 ------- null}
h -t 0.1075 -s 1 -d 2 -p cbr -e 210 -c 0 -i 2 -a 0 -x {1.0 2.0 -1 ------- null}
r -t 0.110168 -s 1 -d 2 -p cbr -e 210 -c 0 -i 0 -a 0 -x {1.0 2.0 0 ------- null}
+ -t 0.11125 -s 1 -d 2 -p cbr -e 210 -c 0 -i 3 -a 0 -x {1.0 2.0 3 ------- null}
- -t 0.11125 -s 1 -d 2 -p cbr -e 210 -c 0 -i 3 -a 0 -x {1.0 2.0 3 ------- null}
h -t 0.11125 -s 1 -d 2 -p cbr -e 210 -c 0 -i 3 -a 0 -x {1.0 2.0 -1 ------- null}
r -t 0.113918 -s 1 -d 2 -p cbr -e 210 -c 0 -i 1 -a 0 -x {1.0 2.0 1 ------- null}
+ -t 0.115 -s 1 -d 2 -p cbr -e 210 -c 0 -i 4 -a 0 -x {1.0 2.0 4 ------- null}
- -t 0.115 -s 1 -d 2 -p cbr -e 210 -c 0 -i 4 -a 0 -x {1.0 2.0 4 ------- null}
h -t 0.115 -s 1 -d 2 -p cbr -e 210 -c 0 -i 4 -a 0 -x {1.0 2.0 -1 ------- null}
r -t 0.117668 -s 1 -d 2 -p cbr -e 210 -c 0 -i 2 -a 0 -x {1.0 2.0 2 ------- null}
+ -t 0.11875 -s 1 -d 2 -p cbr -e 210 -c 0 -i 5 -a 0 -x {1.0 2.0 5 ------- null}
- -t 0.11875 -s 1 -d 2 -p cbr -e 210 -c 0 -i 5 -a 0 -x {1.0 2.0 5 ------- null}
h -t 0.11875 -s 1 -d 2 -p cbr -e 210 -c 0 -i 5 -a 0 -x {1.0 2.0 -1 ------- null}
r -t 0.121418 -s 1 -d 2 -p cbr -e 210 -c 0 -i 3 -a 0 -x {1.0 2.0 3 ------- null}
+ -t 0.1225 -s 1 -d 2 -p cbr -e 210 -c 0 -i 6 -a 0 -x {1.0 2.0 6 ------- null}
- -t 0.1225 -s 1 -d 2 -p cbr -e 210 -c 0 -i 6 -a 0 -x {1.0 2.0 6 ------- null}
h -t 0.1225 -s 1 -d 2 -p cbr -e 210 -c 0 -i 6 -a 0 -x {1.0 2.0 -1 ------- null}
r -t 0.125168 -s 1 -d 2 -p cbr -e 210 -c 0 -i 4 -a 0 -x {1.0 2.0 4 ------- null}
+ -t 0.12625 -s 1 -d 2 -p cbr -e 210 -c 0 -i 7 -a 0 -x {1.0 2.0 7 ------- null}
- -t 0.12625 -s 1 -d 2 -p cbr -e 210 -c 0 -i 7 -a 0 -x {1.0 2.0 7 ------- null}
h -t 0.12625 -s 1 -d 2 -p cbr -e 210 -c 0 -i 7 -a 0 -x {1.0 2.0 -1 ------- null}
r -t 0.128918 -s 1 -d 2 -p cbr -e 210 -c 0 -i 5 -a 0 -x {1.0 2.0 5 ------- null}
+ -t 0.13 -s 1 -d 2 -p cbr -e 210 -c 0 -i 8 -a 0 -x {1.0 2.0 8 ------- null}
- -t 0.13 -s 1 -d 2 -p cbr -e 210 -c 0 -i 8 -a 0 -x {1.0 2.0 8 ------- null}
h -t 0.13 -s 1 -d 2 -p cbr -e 210 -c 0 -i 8 -a 0 -x {1.0 2.0 -1 ------- null}
r -t 0.132668 -s 1 -d 2 -p cbr -e 210 -c 0 -i 6 -a 0 -x {1.0 2.0 6 ------- null}
+ -t 0.13375 -s 1 -d 2 -p cbr -e 210 -c 0 -i 9 -a 0 -x {1.0 2.0 9 ------- null}
- -t 0.13375 -s 1 -d 2 -p cbr -e 210 -c 0 -i 9 -a 0 -x {1.0 2.0 9 ------- null}
h -t 0.13375 -s 1 -d 2 -p cbr -e 210 -c 0 -i 9 -a 0 -x {1.0 2.0 -1 ------- null}
r -t 0.136418 -s 1 -d 2 -p cbr -e 210 -c 0 -i 7 -a 0 -x {1.0 2.0 7 ------- null}
+ -t 0.1375 -s 1 -d 2 -p cbr -e 210 -c 0 -i 10 -a 0 -x {1.0 2.0 10 ------- null}
- -t 0.1375 -s 1 -d 2 -p cbr -e 210 -c 0 -i 10 -a 0 -x {1.0 2.0 10 ------- null}
h -t 0.1375 -s 1 -d 2 -p cbr -e 210 -c 0 -i 10 -a 0 -x {1.0 2.0 -1 ------- null}
r -t 0.140168 -s 1 -d 2 -p cbr -e 210 -c 0 -i 8 -a 0 -x {1.0 2.0 8 ------- null}
+ -t 0.14125 -s 1 -d 2 -p cbr -e 210 -c 0 -i 11 -a 0 -x {1.0 2.0 11 ------- null}
- -t 0.14125 -s 1 -d 2 -p cbr -e 210 -c 0 -i 11 -a 0 -x {1.0 2.0 11 ------- null}
h -t 0.14125 -s 1 -d 2 -p cbr -e 210 -c 0 -i 11 -a 0 -x {1.0 2.0 -1 ------- null}
r -t 0.143918 -s 1 -d 2 -p cbr -e 210 -c 0 -i 9 -a 0 -x {1.0 2.0 9 ------- null}
+ -t 0.145 -s 1 -d 2 -p cbr -e 210 -c 0 -i 12 -a 0 -x {1.0 2.0 12 ------- null}
- -t 0.145 -s 1 -d 2 -p cbr -e 210 -c 0 -i 12 -a 0 -x {1.0 2.0 12 ------- null}
h -t 0.145 -s 1 -d 2 -p cbr -e 210 -c 0 -i 12 -a 0 -x {1.0 2.0 -1 ------- null}
r -t 0.147668 -s 1 -d 2 -p cbr -e 210 -c 0 -i 10 -a 0 -x {1.0 2.0 10 ------- null}
+ -t 0.14875 -s 1 -d 2 -p cbr -e 210 -c 0 -i 13 -a 0 -x {1.0 2.0 13 ------- null}
- -t 0.14875 -s 1 -d 2 -p cbr -e 210 -c 0 -i 13 -a 0 -x {1.0 2.0 13 ------- null}
h -t 0.14875 -s 1 -d 2 -p cbr -e 210 -c 0 -i 13 -a 0 -x {1.0 2.0 -1 ------- null}
r -t 0.151418 -s 1 -d 2 -p cbr -e 210 -c 0 -i 11 -a 0 -x {1.0 2.0 11 ------- null}
+ -t 0.1525 -s 1 -d 2 -p cbr -e 210 -c 0 -i 14 -a 0 -x {1.0 2.0 14 ------- null}
- -t 0.1525 -s 1 -d 2 -p cbr -e 210 -c 0 -i 14 -a 0 -x {1.0 2.0 14 ------- null}
h -t 0.1525 -s 1 -d 2 -p cbr -e 210 -c 0 -i 14 -a 0 -x {1.0 2.0 -1 ------- null}
r -t 0.155168 -s 1 -d 2 -p cbr -e 210 -c 0 -i 12 -a 0 -x {1.0 2.0 12 ------- null}
+ -t 0.15625 -s 1 -d 2 -p cbr -e 210 -c 0 -i 15 -a 0 -x {1.0 2.0 15 ------- null}
- -t 0.15625 -s 1 -d 2 -p cbr -e 210 -c 0 -i 15 -a 0 -x {1.0 2.0 15 ------- null}
h -t 0.15625 -s 1 -d 2 -p cbr -e 210 -c 0 -i 15 -a 0 -x {1.0 2.0 -1 ------- null}
r -t 0.158918 -s 1 -d 2 -p cbr -e 210 -c 0 -i 13 -a 0 -x {1.0 2.0 13 ------- null}
+ -t 0.16 -s 1 -d 2 -p cbr -e 210 -c 0 -i 16 -a 0 -x {1.0 2.0 16 ------- null}
- -t 0.16 -s 1 -d 2 -p cbr -e 210 -c 0 -i 16 -a 0 -x {1.0 2.0 16 ------- null}
h -t 0.16 -s 1 -d 2 -p cbr -e 210 -c 0 -i 16 -a 0 -x {1.0 2.0 -1 ------- null}
r -t 0.162668 -s 1 -d 2 -p cbr -e 210 -c 0 -i 14 -a 0 -x {1.0 2.0 14 ------- null}
+ -t 0.16375 -s 1 -d 2 -p cbr -e 210 -c 0 -i 17 -a 0 -x {1.0 2.0 17 ------- null}
- -t 0.16375 -s 1 -d 2 -p cbr -e 210 -c 0 -i 17 -a 0 -x {1.0 2.0 17 ------- null}
h -t 0.16375 -s 1 -d 2 -p cbr -e 210 -c 0 -i 17 -a 0 -x {1.0 2.0 -1 ------- null}
r -t 0.166418 -s 1 -d 2 -p cbr -e 210 -c 0 -i 15 -a 0 -x {1.0 2.0 15 ------- null}
+ -t 0.1675 -s 1 -d 2 -p cbr -e 210 -c 0 -i 18 -a 0 -x {1.0 2.0 18 ------- null}
- -t 0.1675 -s 1 -d 2 -p cbr -e 210 -c 0 -i 18 -a 0 -x {1.0 2.0 18 ------- null}
h -t 0.1675 -s 1 -d 2 -p cbr -e 210 -c 0 -i 18 -a 0 -x {1.0 2.0 -1 ------- null}
r -t 0.170168 -s 1 -d 2 -p cbr -e 210 -c 0 -i 16 -a 0 -x {1.0 2.0 16 ------- null}
+ -t 0.17125 -s 1 -d 2 -p cbr -e 210 -c 0 -i 19 -a 0 -x {1.0 2.0 19 ------- null}
- -t 0.17125 -s 1 -d 2 -p cbr -e 210 -c 0 -i 19 -a 0 -x {1.0 2.0 19 ------- null}
h -t 0.17125 -s 1 -d 2 -p cbr -e 210 -c 0 -i 19 -a 0 -x {1.0 2.0 -1 ------- null}
r -t 0.173918 -s 1 -d 2 -p cbr -e 210 -c 0 -i 17 -a 0 -x {1.0 2.0 17 ------- null}
+ -t 0.175 -s 1 -d 2 -p cbr -e 210 -c 0 -i 20 -a 0 -x {1.0 2.0 20 ------- null}
- -t 0.175 -s 1 -d 2 -p cbr -e 210 -c 0 -i 20 -a 0 -x {1.0 2.0 20 ------- null}
h -t 0.175 -s 1 -d 2 -p cbr -e 210 -c 0 -i 20 -a 0 -x {1.0 2.0 -1 ------- null}
r -t 0.177668 -s 1 -d 2 -p cbr -e 210 -c 0 -i 18 -a 0 -x {1.0 2.0 18 ------- null}
+ -t 0.17875 -s 1 -d 2 -p cbr -e 210 -c 0 -i 21 -a 0 -x {1.0 2.0 21 ------- null}
- -t 0.17875 -s 1 -d 2 -p cbr -e 210 -c 0 -i 21 -a 0 -x {1.0 2.0 21 ------- null}
h -t 0.17875 -s 1 -d 2 -p cbr -e 210 -c 0 -i 21 -a 0 -x {1.0 2.0 -1 ------- null}
r -t 0.181418 -s 1 -d 2 -p cbr -e 210 -c 0 -i 19 -a 0 -x {1.0 2.0 19 ------- null}
+ -t 0.1825 -s 1 -d 2 -p cbr -e 210 -c 0 -i 22 -a 0 -x {1.0 2.0 22 ------- null}
- -t 0.1825 -s 1 -d 2 -p cbr -e 210 -c 0 -i 22 -a 0 -x {1.0 2.0 22 ------- null}
h -t 0.1825 -s 1 -d 2 -p cbr -e 210 -c 0 -i 22 -a 0 -x {1.0 2.0 -1 ------- null}
r -t 0.185168 -s 1 -d 2 -p cbr -e 210 -c 0 -i 20 -a 0 -x {1.0 2.0 20 ------- null}
+ -t 0.18625 -s 1 -d 2 -p cbr -e 210 -c 0 -i 23 -a 0 -x {1.0 2.0 23 ------- null}
- -t 0.18625 -s 1 -d 2 -p cbr -e 210 -c 0 -i 23 -a 0 -x {1.0 2.0 23 ------- null}
h -t 0.18625 -s 1 -d 2 -p cbr -e 210 -c 0 -i 23 -a 0 -x {1.0 2.0 -1 ------- null}
r -t 0.188918 -s 1 -d 2 -p cbr -e 210 -c 0 -i 21 -a 0 -x {1.0 2.0 21 ------- null}
+ -t 0.19 -s 1 -d 2 -p cbr -e 210 -c 0 -i 24 -a 0 -x {1.0 2.0 24 ------- null}
- -t 0.19 -s 1 -d 2 -p cbr -e 210 -c 0 -i 24 -a 0 -x {1.0 2.0 24 ------- null}
h -t 0.19 -s 1 -d 2 -p cbr -e 210 -c 0 -i 24 -a 0 -x {1.0 2.0 -1 ------- null}
r -t 0.192668 -s 1 -d 2 -p cbr -e 210 -c 0 -i 22 -a 0 -x {1.0 2.0 22 ------- null}
+ -t 0.19375 -s 1 -d 2 -p cbr -e 210 -c 0 -i 25 -a 0 -x {1.0 2.0 25 ------- null}
- -t 0.19375 -s 1 -d 2 -p cbr -e 210 -c 0 -i 25 -a 0 -x {1.0 2.0 25 ------- null}
h -t 0.19375 -s 1 -d 2 -p cbr -e 210 -c 0 -i 25 -a 0 -x {1.0 2.0 -1 ------- null}
r -t 0.196418 -s 1 -d 2 -p cbr -e 210 -c 0 -i 23 -a 0 -x {1.0 2.0 23 ------- null}
+ -t 0.1975 -s 1 -d 2 -p cbr -e 210 -c 0 -i 26 -a 0 -x {1.0 2.0 26 ------- null}
- -t 0.1975 -s 1 -d 2 -p cbr -e 210 -c 0 -i 26 -a 0 -x {1.0 2.0 26 ------- null}
h -t 0.1975 -s 1 -d 2 -p cbr -e 210 -c 0 -i 26 -a 0 -x {1.0 2.0 -1 ------- null}
r -t 0.200168 -s 1 -d 2 -p cbr -e 210 -c 0 -i 24 -a 0 -x {1.0 2.0 24 ------- null}
+ -t 0.20125 -s 1 -d 2 -p cbr -e 210 -c 0 -i 27 -a 0 -x {1.0 2.0 27 ------- null}
- -t 0.20125 -s 1 -d 2 -p cbr -e 210 -c 0 -i 27 -a 0 -x {1.0 2.0 27 ------- null}
h -t 0.20125 -s 1 -d 2 -p cbr -e 210 -c 0 -i 27 -a 0 -x {1.0 2.0 -1 ------- null}
r -t 0.203918 -s 1 -d 2 -p cbr -e 210 -c 0 -i 25 -a 0 -x {1.0 2.0 25 ------- null}
+ -t 0.205 -s 1 -d 2 -p cbr -e 210 -c 0 -i 28 -a 0 -x {1.0 2.0 28 ------- null}
- -t 0.205 -s 1 -d 2 -p cbr -e 210 -c 0 -i 28 -a 0 -x {1.0 2.0 28 ------- null}
h -t 0.205 -s 1 -d 2 -p cbr -e 210 -c 0 -i 28 -a 0 -x {1.0 2.0 -1 ------- null}
r -t 0.207668 -s 1 -d 2 -p cbr -e 210 -c 0 -i 26 -a 0 -x {1.0 2.0 26 ------- null}
+ -t 0.20875 -s 1 -d 2 -p cbr -e 210 -c 0 -i 29 -a 0 -x {1.0 2.0 29 ------- null}
- -t 0.20875 -s 1 -d 2 -p cbr -e 210 -c 0 -i 29 -a 0 -x {1.0 2.0 29 ------- null}
h -t 0.20875 -s 1 -d 2 -p cbr -e 210 -c 0 -i 29 -a 0 -x {1.0 2.0 -1 ------- null}
r -t 0.211418 -s 1 -d 2 -p cbr -e 210 -c 0 -i 27 -a 0 -x {1.0 2.0 27 ------- null}
+ -t 0.2125 -s 1 -d 2 -p cbr -e 210 -c 0 -i 30 -a 0 -x {1.0 2.0 30 ------- null}
- -t 0.2125 -s 1 -d 2 -p cbr -e 210 -c 0 -i 30 -a 0 -x {1.0 2.0 30 ------- null}
h -t 0.2125 -s 1 -d 2 -p cbr -e 210 -c 0 -i 30 -a 0 -x {1.0 2.0 -1 ------- null}
r -t 0.215168 -s 1 -d 2 -p cbr -e 210 -c 0 -i 28 -a 0 -x {1.0 2.0 28 ------- null}
+ -t 0.21625 -s 1 -d 2 -p cbr -e 210 -c 0 -i 31 -a 0 -x {1.0 2.0 31 ------- null}
- -t 0.21625 -s 1 -d 2 -p cbr -e 210 -c 0 -i 31 -a 0 -x {1.0 2.0 31 ------- null}
h -t 0.21625 -s 1 -d 2 -p cbr -e 210 -c 0 -i 31 -a 0 -x {1.0 2.0 -1 ------- null}
r -t 0.218918 -s 1 -d 2 -p cbr -e 210 -c 0 -i 29 -a 0 -x {1.0 2.0 29 ------- null}
+ -t 0.22 -s 1 -d 2 -p cbr -e 210 -c 0 -i 32 -a 0 -x {1.0 2.0 32 ------- null}
- -t 0.22 -s 1 -d 2 -p cbr -e 210 -c 0 -i 32 -a 0 -x {1.0 2.0 32 ------- null}
h -t 0.22 -s 1 -d 2 -p cbr -e 210 -c 0 -i 32 -a 0 -x {1.0 2.0 -1 ------- null}
r -t 0.222668 -s 1 -d 2 -p cbr -e 210 -c 0 -i 30 -a 0 -x {1.0 2.0 30 ------- null}
+ -t 0.22375 -s 1 -d 2 -p cbr -e 210 -c 0 -i 33 -a 0 -x {1.0 2.0 33 ------- null}
- -t 0.22375 -s 1 -d 2 -p cbr -e 210 -c 0 -i 33 -a 0 -x {1.0 2.0 33 ------- null}
h -t 0.22375 -s 1 -d 2 -p cbr -e 210 -c 0 -i 33 -a 0 -x {1.0 2.0 -1 ------- null}
r -t 0.226418 -s 1 -d 2 -p cbr -e 210 -c 0 -i 31 -a 0 -x {1.0 2.0 31 ------- null}
+ -t 0.2275 -s 1 -d 2 -p cbr -e 210 -c 0 -i 34 -a 0 -x {1.0 2.0 34 ------- null}
- -t 0.2275 -s 1 -d 2 -p cbr -e 210 -c 0 -i 34 -a 0 -x {1.0 2.0 34 ------- null}
h -t 0.2275 -s 1 -d 2 -p cbr -e 210 -c 0 -i 34 -a 0 -x {1.0 2.0 -1 ------- null}
r -t 0.230168 -s 1 -d 2 -p cbr -e 210 -c 0 -i 32 -a 0 -x {1.0 2.0 32 ------- null}
+ -t 0.23125 -s 1 -d 2 -p cbr -e 210 -c 0 -i 35 -a 0 -x {1.0 2.0 35 ------- null}
- -t 0.23125 -s 1 -d 2 -p cbr -e 210 -c 0 -i 35 -a 0 -x {1.0 2.0 35 ------- null}
h -t 0.23125 -s 1 -d 2 -p cbr -e 210 -c 0 -i 35 -a 0 -x {1.0 2.0 -1 ------- null}
r -t 0.233918 -s 1 -d 2 -p cbr -e 210 -c 0 -i 33 -a 0 -x {1.0 2.0 33 ------- null}
+ -t 0.235 -s 1 -d 2 -p cbr -e 210 -c 0 -i 36 -a 0 -x {1.0 2.0 36 ------- null}
- -t 0.235 -s 1 -d 2 -p cbr -e 210 -c 0 -i 36 -a 0 -x {1.0 2.0 36 ------- null}
h -t 0.235 -s 1 -d 2 -p cbr -e 210 -c 0 -i 36 -a 0 -x {1.0 2.0 -1 ------- null}
r -t 0.237668 -s 1 -d 2 -p cbr -e 210 -c 0 -i 34 -a 0 -x {1.0 2.0 34 ------- null}
+ -t 0.23875 -s 1 -d 2 -p cbr -e 210 -c 0 -i 37 -a 0 -x {1.0 2.0 37 ------- null}
- -t 0.23875 -s 1 -d 2 -p cbr -e 210 -c 0 -i 37 -a 0 -x {1.0 2.0 37 ------- null}
h -t 0.23875 -s 1 -d 2 -p cbr -e 210 -c 0 -i 37 -a 0 -x {1.0 2.0 -1 ------- null}
r -t 0.241418 -s 1 -d 2 -p cbr -e 210 -c 0 -i 35 -a 0 -x {1.0 2.0 35 ------- null}
+ -t 0.2425 -s 1 -d 2 -p cbr -e 210 -c 0 -i 38 -a 0 -x {1.0 2.0 38 ------- null}
- -t 0.2425 -s 1 -d 2 -p cbr -e 210 -c 0 -i 38 -a 0 -x {1.0 2.0 38 ------- null}
h -t 0.2425 -s 1 -d 2 -p cbr -e 210 -c 0 -i 38 -a 0 -x {1.0 2.0 -1 ------- null}
r -t 0.245168 -s 1 -d 2 -p cbr -e 210 -c 0 -i 36 -a 0 -x {1.0 2.0 36 ------- null}
+ -t 0.24625 -s 1 -d 2 -p cbr -e 210 -c 0 -i 39 -a 0 -x {1.0 2.0 39 ------- null}
- -t 0.24625 -s 1 -d 2 -p cbr -e 210 -c 0 -i 39 -a 0 -x {1.0 2.0 39 ------- null}
h -t 0.24625 -s 1 -d 2 -p cbr -e 210 -c 0 -i 39 -a 0 -x {1.0 2.0 -1 ------- null}
r -t 0.248918 -s 1 -d 2 -p cbr -e 210 -c 0 -i 37 -a 0 -x {1.0 2.0 37 ------- null}
+ -t 0.25 -s 1 -d 2 -p cbr -e 210 -c 0 -i 40 -a 0 -x {1.0 2.0 40 ------- null}
- -t 0.25 -s 1 -d 2 -p cbr -e 210 -c 0 -i 40 -a 0 -x {1.0 2.0 40 ------- null}
h -t 0.25 -s 1 -d 2 -p cbr -e 210 -c 0 -i 40 -a 0 -x {1.0 2.0 -1 ------- null}
r -t 0.252668 -s 1 -d 2 -p cbr -e 210 -c 0 -i 38 -a 0 -x {1.0 2.0 38 ------- null}
+ -t 0.25375 -s 1 -d 2 -p cbr -e 210 -c 0 -i 41 -a 0 -x {1.0 2.0 41 ------- null}
- -t 0.25375 -s 1 -d 2 -p cbr -e 210 -c 0 -i 41 -a 0 -x {1.0 2.0 41 ------- null}
h -t 0.25375 -s 1 -d 2 -p cbr -e 210 -c 0 -i 41 -a 0 -x {1.0 2.0 -1 ------- null}
r -t 0.256418 -s 1 -d 2 -p cbr -e 210 -c 0 -i 39 -a 0 -x {1.0 2.0 39 ------- null}
+ -t 0.2575 -s 1 -d 2 -p cbr -e 210 -c 0 -i 42 -a 0 -x {1.0 2.0 42 ------- null}
- -t 0.2575 -s 1 -d 2 -p cbr -e 210 -c 0 -i 42 -a 0 -x {1.0 2.0 42 ------- null}
h -t 0.2575 -s 1 -d 2 -p cbr -e 210 -c 0 -i 42 -a 0 -x {1.0 2.0 -1 ------- null}
r -t 0.260168 -s 1 -d 2 -p cbr -e 210 -c 0 -i 40 -a 0 -x {1.0 2.0 40 ------- null}
+ -t 0.26125 -s 1 -d 2 -p cbr -e 210 -c 0 -i 43 -a 0 -x {1.0 2.0 43 ------- null}
- -t 0.26125 -s 1 -d 2 -p cbr -e 210 -c 0 -i 43 -a 0 -x {1.0 2.0 43 ------- null}
h -t 0.26125 -s 1 -d 2 -p cbr -e 210 -c 0 -i 43 -a 0 -x {1.0 2.0 -1 ------- null}
r -t 0.263918 -s 1 -d 2 -p cbr -e 210 -c 0 -i 41 -a 0 -x {1.0 2.0 41 ------- null}
+ -t 0.265 -s 1 -d 2 -p cbr -e 210 -c 0 -i 44 -a 0 -x {1.0 2.0 44 ------- null}
- -t 0.265 -s 1 -d 2 -p cbr -e 210 -c 0 -i 44 -a 0 -x {1.0 2.0 44 ------- null}
h -t 0.265 -s 1 -d 2 -p cbr -e 210 -c 0 -i 44 -a 0 -x {1.0 2.0 -1 ------- null}
r -t 0.267668 -s 1 -d 2 -p cbr -e 210 -c 0 -i 42 -a 0 -x {1.0 2.0 42 ------- null}
+ -t 0.26875 -s 1 -d 2 -p cbr -e 210 -c 0 -i 45 -a 0 -x {1.0 2.0 45 ------- null}
- -t 0.26875 -s 1 -d 2 -p cbr -e 210 -c 0 -i 45 -a 0 -x {1.0 2.0 45 ------- null}
h -t 0.26875 -s 1 -d 2 -p cbr -e 210 -c 0 -i 45 -a 0 -x {1.0 2.0 -1 ------- null}
r -t 0.271418 -s 1 -d 2 -p cbr -e 210 -c 0 -i 43 -a 0 -x {1.0 2.0 43 ------- null}
+ -t 0.2725 -s 1 -d 2 -p cbr -e 210 -c 0 -i 46 -a 0 -x {1.0 2.0 46 ------- null}
- -t 0.2725 -s 1 -d 2 -p cbr -e 210 -c 0 -i 46 -a 0 -x {1.0 2.0 46 ------- null}
h -t 0.2725 -s 1 -d 2 -p cbr -e 210 -c 0 -i 46 -a 0 -x {1.0 2.0 -1 ------- null}
r -t 0.275168 -s 1 -d 2 -p cbr -e 210 -c 0 -i 44 -a 0 -x {1.0 2.0 44 ------- null}
+ -t 0.27625 -s 1 -d 2 -p cbr -e 210 -c 0 -i 47 -a 0 -x {1.0 2.0 47 ------- null}
- -t 0.27625 -s 1 -d 2 -p cbr -e 210 -c 0 -i 47 -a 0 -x {1.0 2.0 47 ------- null}
h -t 0.27625 -s 1 -d 2 -p cbr -e 210 -c 0 -i 47 -a 0 -x {1.0 2.0 -1 ------- null}
r -t 0.278918 -s 1 -d 2 -p cbr -e 210 -c 0 -i 45 -a 0 -x {1.0 2.0 45 ------- null}
+ -t 0.28 -s 1 -d 2 -p cbr -e 210 -c 0 -i 48 -a 0 -x {1.0 2.0 48 ------- null}
- -t 0.28 -s 1 -d 2 -p cbr -e 210 -c 0 -i 48 -a 0 -x {1.0 2.0 48 ------- null}
h -t 0.28 -s 1 -d 2 -p cbr -e 210 -c 0 -i 48 -a 0 -x {1.0 2.0 -1 ------- null}
r -t 0.282668 -s 1 -d 2 -p cbr -e 210 -c 0 -i 46 -a 0 -x {1.0 2.0 46 ------- null}
+ -t 0.28375 -s 1 -d 2 -p cbr -e 210 -c 0 -i 49 -a 0 -x {1.0 2.0 49 ------- null}
- -t 0.28375 -s 1 -d 2 -p cbr -e 210 -c 0 -i 49 -a 0 -x {1.0 2.0 49 ------- null}
h -t 0.28375 -s 1 -d 2 -p cbr -e 210 -c 0 -i 49 -a 0 -x {1.0 2.0 -1 ------- null}
r -t 0.286418 -s 1 -d 2 -p cbr -e 210 -c 0 -i 47 -a 0 -x {1.0 2.0 47 ------- null}
+ -t 0.2875 -s 1 -d 2 -p cbr -e 210 -c 0 -i 50 -a 0 -x {1.0 2.0 50 ------- null}
- -t 0.2875 -s 1 -d 2 -p cbr -e 210 -c 0 -i 50 -a 0 -x {1.0 2.0 50 ------- null}
h -t 0.2875 -s 1 -d 2 -p cbr -e 210 -c 0 -i 50 -a 0 -x {1.0 2.0 -1 ------- null}
r -t 0.290168 -s 1 -d 2 -p cbr -e 210 -c 0 -i 48 -a 0 -x {1.0 2.0 48 ------- null}
+ -t 0.29125 -s 1 -d 2 -p cbr -e 210 -c 0 -i 51 -a 0 -x {1.0 2.0 51 ------- null}
- -t 0.29125 -s 1 -d 2 -p cbr -e 210 -c 0 -i 51 -a 0 -x {1.0 2.0 51 ------- null}
h -t 0.29125 -s 1 -d 2 -p cbr -e 210 -c 0 -i 51 -a 0 -x {1.0 2.0 -1 ------- null}
r -t 0.293918 -s 1 -d 2 -p cbr -e 210 -c 0 -i 49 -a 0 -x {1.0 2.0 49 ------- null}
+ -t 0.295 -s 1 -d 2 -p cbr -e 210 -c 0 -i 52 -a 0 -x {1.0 2.0 52 ------- null}
- -t 0.295 -s 1 -d 2 -p cbr -e 210 -c 0 -i 52 -a 0 -x {1.0 2.0 52 ------- null}
h -t 0.295 -s 1 -d 2 -p cbr -e 210 -c 0 -i 52 -a 0 -x {1.0 2.0 -1 ------- null}
r -t 0.297668 -s 1 -d 2 -p cbr -e 210 -c 0 -i 50 -a 0 -x {1.0 2.0 50 ------- null}
+ -t 0.29875 -s 1 -d 2 -p cbr -e 210 -c 0 -i 53 -a 0 -x {1.0 2.0 53 ------- null}
- -t 0.29875 -s 1 -d 2 -p cbr -e 210 -c 0 -i 53 -a 0 -x {1.0 2.0 53 ------- null}
h -t 0.29875 -s 1 -d 2 -p cbr -e 210 -c 0 -i 53 -a 0 -x {1.0 2.0 -1 ------- null}
r -t 0.301418 -s 1 -d 2 -p cbr -e 210 -c 0 -i 51 -a 0 -x {1.0 2.0 51 ------- null}
+ -t 0.3025 -s 1 -d 2 -p cbr -e 210 -c 0 -i 54 -a 0 -x {1.0 2.0 54 ------- null}
- -t 0.3025 -s 1 -d 2 -p cbr -e 210 -c 0 -i 54 -a 0 -x {1.0 2.0 54 ------- null}
h -t 0.3025 -s 1 -d 2 -p cbr -e 210 -c 0 -i 54 -a 0 -x {1.0 2.0 -1 ------- null}
r -t 0.305168 -s 1 -d 2 -p cbr -e 210 -c 0 -i 52 -a 0 -x {1.0 2.0 52 ------- null}
+ -t 0.30625 -s 1 -d 2 -p cbr -e 210 -c 0 -i 55 -a 0 -x {1.0 2.0 55 ------- null}
- -t 0.30625 -s 1 -d 2 -p cbr -e 210 -c 0 -i 55 -a 0 -x {1.0 2.0 55 ------- null}
h -t 0.30625 -s 1 -d 2 -p cbr -e 210 -c 0 -i 55 -a 0 -x {1.0 2.0 -1 ------- null}
r -t 0.308918 -s 1 -d 2 -p cbr -e 210 -c 0 -i 53 -a 0 -x {1.0 2.0 53 ------- null}
+ -t 0.31 -s 1 -d 2 -p cbr -e 210 -c 0 -i 56 -a 0 -x {1.0 2.0 56 ------- null}
- -t 0.31 -s 1 -d 2 -p cbr -e 210 -c 0 -i 56 -a 0 -x {1.0 2.0 56 ------- null}
h -t 0.31 -s 1 -d 2 -p cbr -e 210 -c 0 -i 56 -a 0 -x {1.0 2.0 -1 ------- null}
r -t 0.312668 -s 1 -d 2 -p cbr -e 210 -c 0 -i 54 -a 0 -x {1.0 2.0 54 ------- null}
+ -t 0.31375 -s 1 -d 2 -p cbr -e 210 -c 0 -i 57 -a 0 -x {1.0 2.0 57 ------- null}
- -t 0.31375 -s 1 -d 2 -p cbr -e 210 -c 0 -i 57 -a 0 -x {1.0 2.0 57 ------- null}
h -t 0.31375 -s 1 -d 2 -p cbr -e 210 -c 0 -i 57 -a 0 -x {1.0 2.0 -1 ------- null}
r -t 0.316418 -s 1 -d 2 -p cbr -e 210 -c 0 -i 55 -a 0 -x {1.0 2.0 55 ------- null}
+ -t 0.3175 -s 1 -d 2 -p cbr -e 210 -c 0 -i 58 -a 0 -x {1.0 2.0 58 ------- null}
- -t 0.3175 -s 1 -d 2 -p cbr -e 210 -c 0 -i 58 -a 0 -x {1.0 2.0 58 ------- null}
h -t 0.3175 -s 1 -d 2 -p cbr -e 210 -c 0 -i 58 -a 0 -x {1.0 2.0 -1 ------- null}
r -t 0.320168 -s 1 -d 2 -p cbr -e 210 -c 0 -i 56 -a 0 -x {1.0 2.0 56 ------- null}
+ -t 0.32125 -s 1 -d 2 -p cbr -e 210 -c 0 -i 59 -a 0 -x {1.0 2.0 59 ------- null}
- -t 0.32125 -s 1 -d 2 -p cbr -e 210 -c 0 -i 59 -a 0 -x {1.0 2.0 59 ------- null}
h -t 0.32125 -s 1 -d 2 -p cbr -e 210 -c 0 -i 59 -a 0 -x {1.0 2.0 -1 ------- null}
r -t 0.323918 -s 1 -d 2 -p cbr -e 210 -c 0 -i 57 -a 0 -x {1.0 2.0 57 ------- null}
+ -t 0.325 -s 1 -d 2 -p cbr -e 210 -c 0 -i 60 -a 0 -x {1.0 2.0 60 ------- null}
- -t 0.325 -s 1 -d 2 -p cbr -e 210 -c 0 -i 60 -a 0 -x {1.0 2.0 60 ------- null}
h -t 0.325 -s 1 -d 2 -p cbr -e 210 -c 0 -i 60 -a 0 -x {1.0 2.0 -1 ------- null}
r -t 0.327668 -s 1 -d 2 -p cbr -e 210 -c 0 -i 58 -a 0 -x {1.0 2.0 58 ------- null}
+ -t 0.32875 -s 1 -d 2 -p cbr -e 210 -c 0 -i 61 -a 0 -x {1.0 2.0 61 ------- null}
- -t 0.32875 -s 1 -d 2 -p cbr -e 210 -c 0 -i 61 -a 0 -x {1.0 2.0 61 ------- null}
h -t 0.32875 -s 1 -d 2 -p cbr -e 210 -c 0 -i 61 -a 0 -x {1.0 2.0 -1 ------- null}
r -t 0.331418 -s 1 -d 2 -p cbr -e 210 -c 0 -i 59 -a 0 -x {1.0 2.0 59 ------- null}
+ -t 0.3325 -s 1 -d 2 -p cbr -e 210 -c 0 -i 62 -a 0 -x {1.0 2.0 62 ------- null}
- -t 0.3325 -s 1 -d 2 -p cbr -e 210 -c 0 -i 62 -a 0 -x {1.0 2.0 62 ------- null}
h -t 0.3325 -s 1 -d 2 -p cbr -e 210 -c 0 -i 62 -a 0 -x {1.0 2.0 -1 ------- null}
r -t 0.335168 -s 1 -d 2 -p cbr -e 210 -c 0 -i 60 -a 0 -x {1.0 2.0 60 ------- null}
+ -t 0.33625 -s 1 -d 2 -p cbr -e 210 -c 0 -i 63 -a 0 -x {1.0 2.0 63 ------- null}
- -t 0.33625 -s 1 -d 2 -p cbr -e 210 -c 0 -i 63 -a 0 -x {1.0 2.0 63 ------- null}
h -t 0.33625 -s 1 -d 2 -p cbr -e 210 -c 0 -i 63 -a 0 -x {1.0 2.0 -1 ------- null}
r -t 0.338918 -s 1 -d 2 -p cbr -e 210 -c 0 -i 61 -a 0 -x {1.0 2.0 61 ------- null}
+ -t 0.34 -s 1 -d 2 -p cbr -e 210 -c 0 -i 64 -a 0 -x {1.0 2.0 64 ------- null}
- -t 0.34 -s 1 -d 2 -p cbr -e 210 -c 0 -i 64 -a 0 -x {1.0 2.0 64 ------- null}
h -t 0.34 -s 1 -d 2 -p cbr -e 210 -c 0 -i 64 -a 0 -x {1.0 2.0 -1 ------- null}
r -t 0.342668 -s 1 -d 2 -p cbr -e 210 -c 0 -i 62 -a 0 -x {1.0 2.0 62 ------- null}
+ -t 0.34375 -s 1 -d 2 -p cbr -e 210 -c 0 -i 65 -a 0 -x {1.0 2.0 65 ------- null}
- -t 0.34375 -s 1 -d 2 -p cbr -e 210 -c 0 -i 65 -a 0 -x {1.0 2.0 65 ------- null}
h -t 0.34375 -s 1 -d 2 -p cbr -e 210 -c 0 -i 65 -a 0 -x {1.0 2.0 -1 ------- null}
r -t 0.346418 -s 1 -d 2 -p cbr -e 210 -c 0 -i 63 -a 0 -x {1.0 2.0 63 ------- null}
+ -t 0.347499999999999 -s 1 -d 2 -p cbr -e 210 -c 0 -i 66 -a 0 -x {1.0 2.0 66 ------- null}
- -t 0.347499999999999 -s 1 -d 2 -p cbr -e 210 -c 0 -i 66 -a 0 -x {1.0 2.0 66 ------- null}
h -t 0.347499999999999 -s 1 -d 2 -p cbr -e 210 -c 0 -i 66 -a 0 -x {1.0 2.0 -1 ------- null}
r -t 0.350168 -s 1 -d 2 -p cbr -e 210 -c 0 -i 64 -a 0 -x {1.0 2.0 64 ------- null}
+ -t 0.351249999999999 -s 1 -d 2 -p cbr -e 210 -c 0 -i 67 -a 0 -x {1.0 2.0 67 ------- null}
- -t 0.351249999999999 -s 1 -d 2 -p cbr -e 210 -c 0 -i 67 -a 0 -x {1.0 2.0 67 ------- null}
h -t 0.351249999999999 -s 1 -d 2 -p cbr -e 210 -c 0 -i 67 -a 0 -x {1.0 2.0 -1 ------- null}
r -t 0.353918 -s 1 -d 2 -p cbr -e 210 -c 0 -i 65 -a 0 -x {1.0 2.0 65 ------- null}
+ -t 0.354999999999999 -s 1 -d 2 -p cbr -e 210 -c 0 -i 68 -a 0 -x {1.0 2.0 68 ------- null}
- -t 0.354999999999999 -s 1 -d 2 -p cbr -e 210 -c 0 -i 68 -a 0 -x {1.0 2.0 68 ------- null}
h -t 0.354999999999999 -s 1 -d 2 -p cbr -e 210 -c 0 -i 68 -a 0 -x {1.0 2.0 -1 ------- null}
r -t 0.357667999999999 -s 1 -d 2 -p cbr -e 210 -c 0 -i 66 -a 0 -x {1.0 2.0 66 ------- null}
+ -t 0.358749999999999 -s 1 -d 2 -p cbr -e 210 -c 0 -i 69 -a 0 -x {1.0 2.0 69 ------- null}
- -t 0.358749999999999 -s 1 -d 2 -p cbr -e 210 -c 0 -i 69 -a 0 -x {1.0 2.0 69 ------- null}
h -t 0.358749999999999 -s 1 -d 2 -p cbr -e 210 -c 0 -i 69 -a 0 -x {1.0 2.0 -1 ------- null}
r -t 0.361417999999999 -s 1 -d 2 -p cbr -e 210 -c 0 -i 67 -a 0 -x {1.0 2.0 67 ------- null}
+ -t 0.362499999999999 -s 1 -d 2 -p cbr -e 210 -c 0 -i 70 -a 0 -x {1.0 2.0 70 ------- null}
- -t 0.362499999999999 -s 1 -d 2 -p cbr -e 210 -c 0 -i 70 -a 0 -x {1.0 2.0 70 ------- null}
h -t 0.362499999999999 -s 1 -d 2 -p cbr -e 210 -c 0 -i 70 -a 0 -x {1.0 2.0 -1 ------- null}
r -t 0.365167999999999 -s 1 -d 2 -p cbr -e 210 -c 0 -i 68 -a 0 -x {1.0 2.0 68 ------- null}
+ -t 0.366249999999999 -s 1 -d 2 -p cbr -e 210 -c 0 -i 71 -a 0 -x {1.0 2.0 71 ------- null}
- -t 0.366249999999999 -s 1 -d 2 -p cbr -e 210 -c 0 -i 71 -a 0 -x {1.0 2.0 71 ------- null}
h -t 0.366249999999999 -s 1 -d 2 -p cbr -e 210 -c 0 -i 71 -a 0 -x {1.0 2.0 -1 ------- null}
r -t 0.368917999999999 -s 1 -d 2 -p cbr -e 210 -c 0 -i 69 -a 0 -x {1.0 2.0 69 ------- null}
+ -t 0.369999999999999 -s 1 -d 2 -p cbr -e 210 -c 0 -i 72 -a 0 -x {1.0 2.0 72 ------- null}
- -t 0.369999999999999 -s 1 -d 2 -p cbr -e 210 -c 0 -i 72 -a 0 -x {1.0 2.0 72 ------- null}
h -t 0.369999999999999 -s 1 -d 2 -p cbr -e 210 -c 0 -i 72 -a 0 -x {1.0 2.0 -1 ------- null}
r -t 0.372667999999999 -s 1 -d 2 -p cbr -e 210 -c 0 -i 70 -a 0 -x {1.0 2.0 70 ------- null}
+ -t 0.373749999999999 -s 1 -d 2 -p cbr -e 210 -c 0 -i 73 -a 0 -x {1.0 2.0 73 ------- null}
- -t 0.373749999999999 -s 1 -d 2 -p cbr -e 210 -c 0 -i 73 -a 0 -x {1.0 2.0 73 ------- null}
h -t 0.373749999999999 -s 1 -d 2 -p cbr -e 210 -c 0 -i 73 -a 0 -x {1.0 2.0 -1 ------- null}
r -t 0.376417999999999 -s 1 -d 2 -p cbr -e 210 -c 0 -i 71 -a 0 -x {1.0 2.0 71 ------- null}
+ -t 0.377499999999999 -s 1 -d 2 -p cbr -e 210 -c 0 -i 74 -a 0 -x {1.0 2.0 74 ------- null}
- -t 0.377499999999999 -s 1 -d 2 -p cbr -e 210 -c 0 -i 74 -a 0 -x {1.0 2.0 74 ------- null}
h -t 0.377499999999999 -s 1 -d 2 -p cbr -e 210 -c 0 -i 74 -a 0 -x {1.0 2.0 -1 ------- null}
r -t 0.380167999999999 -s 1 -d 2 -p cbr -e 210 -c 0 -i 72 -a 0 -x {1.0 2.0 72 ------- null}
+ -t 0.381249999999999 -s 1 -d 2 -p cbr -e 210 -c 0 -i 75 -a 0 -x {1.0 2.0 75 ------- null}
- -t 0.381249999999999 -s 1 -d 2 -p cbr -e 210 -c 0 -i 75 -a 0 -x {1.0 2.0 75 ------- null}
h -t 0.381249999999999 -s 1 -d 2 -p cbr -e 210 -c 0 -i 75 -a 0 -x {1.0 2.0 -1 ------- null}
r -t 0.383917999999999 -s 1 -d 2 -p cbr -e 210 -c 0 -i 73 -a 0 -x {1.0 2.0 73 ------- null}
+ -t 0.384999999999999 -s 1 -d 2 -p cbr -e 210 -c 0 -i 76 -a 0 -x {1.0 2.0 76 ------- null}
- -t 0.384999999999999 -s 1 -d 2 -p cbr -e 210 -c 0 -i 76 -a 0 -x {1.0 2.0 76 ------- null}
h -t 0.384999999999999 -s 1 -d 2 -p cbr -e 210 -c 0 -i 76 -a 0 -x {1.0 2.0 -1 ------- null}
r -t 0.387667999999999 -s 1 -d 2 -p cbr -e 210 -c 0 -i 74 -a 0 -x {1.0 2.0 74 ------- null}
+ -t 0.388749999999999 -s 1 -d 2 -p cbr -e 210 -c 0 -i 77 -a 0 -x {1.0 2.0 77 ------- null}
- -t 0.388749999999999 -s 1 -d 2 -p cbr -e 210 -c 0 -i 77 -a 0 -x {1.0 2.0 77 ------- null}
h -t 0.388749999999999 -s 1 -d 2 -p cbr -e 210 -c 0 -i 77 -a 0 -x {1.0 2.0 -1 ------- null}
r -t 0.391417999999999 -s 1 -d 2 -p cbr -e 210 -c 0 -i 75 -a 0 -x {1.0 2.0 75 ------- null}
+ -t 0.392499999999999 -s 1 -d 2 -p cbr -e 210 -c 0 -i 78 -a 0 -x {1.0 2.0 78 ------- null}
- -t 0.392499999999999 -s 1 -d 2 -p cbr -e 210 -c 0 -i 78 -a 0 -x {1.0 2.0 78 ------- null}
h -t 0.392499999999999 -s 1 -d 2 -p cbr -e 210 -c 0 -i 78 -a 0 -x {1.0 2.0 -1 ------- null}
r -t 0.395167999999999 -s 1 -d 2 -p cbr -e 210 -c 0 -i 76 -a 0 -x {1.0 2.0 76 ------- null}
+ -t 0.396249999999999 -s 1 -d 2 -p cbr -e 210 -c 0 -i 79 -a 0 -x {1.0 2.0 79 ------- null}
- -t 0.396249999999999 -s 1 -d 2 -p cbr -e 210 -c 0 -i 79 -a 0 -x {1.0 2.0 79 ------- null}
h -t 0.396249999999999 -s 1 -d 2 -p cbr -e 210 -c 0 -i 79 -a 0 -x {1.0 2.0 -1 ------- null}
r -t 0.398917999999999 -s 1 -d 2 -p cbr -e 210 -c 0 -i 77 -a 0 -x {1.0 2.0 77 ------- null}
+ -t 0.399999999999999 -s 1 -d 2 -p cbr -e 210 -c 0 -i 80 -a 0 -x {1.0 2.0 80 ------- null}
- -t 0.399999999999999 -s 1 -d 2 -p cbr -e 210 -c 0 -i 80 -a 0 -x {1.0 2.0 80 ------- null}
h -t 0.399999999999999 -s 1 -d 2 -p cbr -e 210 -c 0 -i 80 -a 0 -x {1.0 2.0 -1 ------- null}
r -t 0.402667999999999 -s 1 -d 2 -p cbr -e 210 -c 0 -i 78 -a 0 -x {1.0 2.0 78 ------- null}
+ -t 0.403749999999999 -s 1 -d 2 -p cbr -e 210 -c 0 -i 81 -a 0 -x {1.0 2.0 81 ------- null}
- -t 0.403749999999999 -s 1 -d 2 -p cbr -e 210 -c 0 -i 81 -a 0 -x {1.0 2.0 81 ------- null}
h -t 0.403749999999999 -s 1 -d 2 -p cbr -e 210 -c 0 -i 81 -a 0 -x {1.0 2.0 -1 ------- null}
r -t 0.406417999999999 -s 1 -d 2 -p cbr -e 210 -c 0 -i 79 -a 0 -x {1.0 2.0 79 ------- null}
+ -t 0.407499999999999 -s 1 -d 2 -p cbr -e 210 -c 0 -i 82 -a 0 -x {1.0 2.0 82 ------- null}
- -t 0.407499999999999 -s 1 -d 2 -p cbr -e 210 -c 0 -i 82 -a 0 -x {1.0 2.0 82 ------- null}
h -t 0.407499999999999 -s 1 -d 2 -p cbr -e 210 -c 0 -i 82 -a 0 -x {1.0 2.0 -1 ------- null}
r -t 0.410167999999999 -s 1 -d 2 -p cbr -e 210 -c 0 -i 80 -a 0 -x {1.0 2.0 80 ------- null}
+ -t 0.411249999999999 -s 1 -d 2 -p cbr -e 210 -c 0 -i 83 -a 0 -x {1.0 2.0 83 ------- null}
- -t 0.411249999999999 -s 1 -d 2 -p cbr -e 210 -c 0 -i 83 -a 0 -x {1.0 2.0 83 ------- null}
h -t 0.411249999999999 -s 1 -d 2 -p cbr -e 210 -c 0 -i 83 -a 0 -x {1.0 2.0 -1 ------- null}
r -t 0.413917999999999 -s 1 -d 2 -p cbr -e 210 -c 0 -i 81 -a 0 -x {1.0 2.0 81 ------- null}
+ -t 0.414999999999999 -s 1 -d 2 -p cbr -e 210 -c 0 -i 84 -a 0 -x {1.0 2.0 84 ------- null}
- -t 0.414999999999999 -s 1 -d 2 -p cbr -e 210 -c 0 -i 84 -a 0 -x {1.0 2.0 84 ------- null}
h -t 0.414999999999999 -s 1 -d 2 -p cbr -e 210 -c 0 -i 84 -a 0 -x {1.0 2.0 -1 ------- null}
r -t 0.417667999999999 -s 1 -d 2 -p cbr -e 210 -c 0 -i 82 -a 0 -x {1.0 2.0 82 ------- null}
+ -t 0.418749999999999 -s 1 -d 2 -p cbr -e 210 -c 0 -i 85 -a 0 -x {1.0 2.0 85 ------- null}
- -t 0.418749999999999 -s 1 -d 2 -p cbr -e 210 -c 0 -i 85 -a 0 -x {1.0 2.0 85 ------- null}
h -t 0.418749999999999 -s 1 -d 2 -p cbr -e 210 -c 0 -i 85 -a 0 -x {1.0 2.0 -1 ------- null}
r -t 0.421417999999999 -s 1 -d 2 -p cbr -e 210 -c 0 -i 83 -a 0 -x {1.0 2.0 83 ------- null}
+ -t 0.422499999999999 -s 1 -d 2 -p cbr -e 210 -c 0 -i 86 -a 0 -x {1.0 2.0 86 ------- null}
- -t 0.422499999999999 -s 1 -d 2 -p cbr -e 210 -c 0 -i 86 -a 0 -x {1.0 2.0 86 ------- null}
h -t 0.422499999999999 -s 1 -d 2 -p cbr -e 210 -c 0 -i 86 -a 0 -x {1.0 2.0 -1 ------- null}
r -t 0.425167999999999 -s 1 -d 2 -p cbr -e 210 -c 0 -i 84 -a 0 -x {1.0 2.0 84 ------- null}
+ -t 0.426249999999999 -s 1 -d 2 -p cbr -e 210 -c 0 -i 87 -a 0 -x {1.0 2.0 87 ------- null}
- -t 0.426249999999999 -s 1 -d 2 -p cbr -e 210 -c 0 -i 87 -a 0 -x {1.0 2.0 87 ------- null}